
Host: USS-Enterprise.local

Timers On : Sun Jul 30 18:57:00 2017
Timers Off: Sun Jul 30 18:57:04 2017

Wall Time:        3.67 seconds


-----------------------------------------------------------

***********************************************************

Host: USS-Enterprise.local

Timers On : Sun Jul 30 18:57:23 2017
Timers Off: Sun Jul 30 18:57:23 2017

Wall Time:        0.26 seconds


-----------------------------------------------------------

***********************************************************

Host: USS-Enterprise.local

Timers On : Sun Jul 30 18:59:35 2017
Timers Off: Sun Jul 30 18:59:36 2017

Wall Time:        0.85 seconds


-----------------------------------------------------------

***********************************************************

Host: USS-Enterprise.local

Timers On : Sun Jul 30 19:00:53 2017
Timers Off: Sun Jul 30 19:00:55 2017

Wall Time:        1.24 seconds


-----------------------------------------------------------

***********************************************************

Host: USS-Enterprise.local

Timers On : Sun Jul 30 19:03:09 2017
Timers Off: Sun Jul 30 19:03:10 2017

Wall Time:        1.30 seconds


-----------------------------------------------------------

***********************************************************

Host: USS-Enterprise.local

Timers On : Sun Jul 30 19:05:42 2017
Timers Off: Sun Jul 30 19:05:43 2017

Wall Time:        1.04 seconds


-----------------------------------------------------------

***********************************************************

Host: USS-Enterprise.local

Timers On : Sun Jul 30 19:08:55 2017
Timers Off: Sun Jul 30 19:08:56 2017

Wall Time:        1.25 seconds


-----------------------------------------------------------

***********************************************************

Host: USS-Enterprise.local

Timers On : Sun Jul 30 19:14:19 2017
Timers Off: Sun Jul 30 19:14:19 2017

Wall Time:        0.25 seconds


-----------------------------------------------------------

***********************************************************

Host: USS-Enterprise.local

Timers On : Sun Jul 30 19:15:13 2017
Timers Off: Sun Jul 30 19:15:14 2017

Wall Time:        0.26 seconds


-----------------------------------------------------------

***********************************************************

Host: USS-Enterprise.local

Timers On : Sun Jul 30 19:16:00 2017
Timers Off: Sun Jul 30 19:16:01 2017

Wall Time:        1.13 seconds


-----------------------------------------------------------

***********************************************************

Host: USS-Enterprise.local

Timers On : Sun Jul 30 20:06:08 2017
Timers Off: Sun Jul 30 20:06:13 2017

Wall Time:        4.90 seconds


-----------------------------------------------------------

***********************************************************

Host: USS-Enterprise.local

Timers On : Sun Jul 30 20:07:22 2017
Timers Off: Sun Jul 30 20:07:23 2017

Wall Time:        1.02 seconds


-----------------------------------------------------------

***********************************************************

Host: USS-Enterprise.local

Timers On : Sun Jul 30 20:08:53 2017
Timers Off: Sun Jul 30 20:08:55 2017

Wall Time:        1.40 seconds


-----------------------------------------------------------

***********************************************************

Host: USS-Enterprise.local

Timers On : Sun Jul 30 20:09:07 2017
Timers Off: Sun Jul 30 20:09:09 2017

Wall Time:        1.24 seconds


-----------------------------------------------------------

***********************************************************

Host: USS-Enterprise.local

Timers On : Sun Jul 30 20:10:45 2017
Timers Off: Sun Jul 30 20:10:46 2017

Wall Time:        1.27 seconds


-----------------------------------------------------------

***********************************************************

Host: USS-Enterprise.local

Timers On : Sun Jul 30 20:11:43 2017
Timers Off: Sun Jul 30 20:11:44 2017

Wall Time:        0.90 seconds


-----------------------------------------------------------

***********************************************************

Host: USS-Enterprise.local

Timers On : Sun Jul 30 20:12:19 2017
Timers Off: Sun Jul 30 20:12:21 2017

Wall Time:        1.23 seconds


-----------------------------------------------------------

***********************************************************

Host: USS-Enterprise.local

Timers On : Sun Jul 30 20:12:41 2017
Timers Off: Sun Jul 30 20:12:42 2017

Wall Time:        0.98 seconds


-----------------------------------------------------------

***********************************************************

Host: USS-Enterprise.local

Timers On : Sun Jul 30 20:16:18 2017
Timers Off: Sun Jul 30 20:16:19 2017

Wall Time:        1.07 seconds


-----------------------------------------------------------

***********************************************************

Host: USS-Enterprise.local

Timers On : Sun Jul 30 20:19:17 2017
Timers Off: Sun Jul 30 20:19:18 2017

Wall Time:        0.99 seconds


-----------------------------------------------------------

***********************************************************

Host: USS-Enterprise.local

Timers On : Sun Jul 30 20:19:45 2017
Timers Off: Sun Jul 30 20:19:45 2017

Wall Time:        0.92 seconds


-----------------------------------------------------------

***********************************************************

Host: USS-Enterprise.local

Timers On : Sun Jul 30 20:22:20 2017
Timers Off: Sun Jul 30 20:22:21 2017

Wall Time:        1.10 seconds


-----------------------------------------------------------

***********************************************************
